
                                 *****************
                                 * O   R   C   A *
                                 *****************

           --- An Ab Initio, DFT and Semiempirical electronic structure package ---

                  #######################################################
                  #                        -***-                        #
                  #  Department of molecular theory and spectroscopy    #
                  #              Directorship: Frank Neese              #
                  # Max Planck Institute for Chemical Energy Conversion #
                  #                  D-45470 Muelheim/Ruhr              #
                  #                       Germany                       #
                  #                                                     #
                  #                  All rights reserved                #
                  #                        -***-                        #
                  #######################################################


                         Program Version 3.0.3 - RELEASE   -


 With contributions from (in alphabetic order):
   Ute Becker             : Parallelization
   Dmytro Bykov           : SCF Hessian
   Dmitry Ganyushin       : Spin-Orbit,Spin-Spin,Magnetic field MRCI
   Andreas Hansen         : Spin unrestricted coupled pair/coupled cluster methods
   Dimitrios Liakos       : Extrapolation schemes; parallel MDCI
   Robert Izsak           : Overlap fitted RIJCOSX, COSX-SCS-MP3
   Christian Kollmar      : KDIIS, OOCD, Brueckner-CCSD(T), CCSD density
   Simone Kossmann        : Meta GGA functionals, TD-DFT gradient, OOMP2, MP2 Hessian
   Taras Petrenko         : DFT Hessian,TD-DFT gradient, ASA and ECA modules, normal mode analysis, Resonance Raman, ABS, FL, XAS/XES, NRVS
   Christoph Reimann      : Effective Core Potentials
   Michael Roemelt        : Restricted open shell CIS
   Christoph Riplinger    : Improved optimizer, TS searches, QM/MM, DLPNO-CCSD
   Barbara Sandhoefer     : DKH picture change effects
   Igor Schapiro          : Molecular dynamics
   Kantharuban Sivalingam : CASSCF convergence, NEVPT2
   Boris Wezisla          : Elementary symmetry handling
   Frank Wennmohs         : Technical directorship


 We gratefully acknowledge several colleagues who have allowed us to
 interface, adapt or use parts of their codes:
   Stefan Grimme, W. Hujo, H. Kruse, T. Risthaus : VdW corrections, initial TS optimization,
                                                   DFT functionals, gCP
   Ed Valeev                                     : LibInt (2-el integral package), F12 methods
   Garnet Chan, S. Sharma, R. Olivares           : DMRG
   Ulf Ekstrom                                   : XCFun DFT Library
   Mihaly Kallay                                 : mrcc  (arbitrary order and MRCC methods)
   Andreas Klamt, Michael Diedenhofen            : otool_cosmo (COSMO solvation model)
   Frank Weinhold                                : gennbo (NPA and NBO analysis)
   Christopher J. Cramer and Donald G. Truhlar   : smd solvation model


 Your calculation uses the libint2 library for the computation of 2-el integrals
 For citations please refer to: http://libint.valeyev.net

 This ORCA versions uses:
   CBLAS   interface :  Fast vector & matrix operations
   LAPACKE interface :  Fast linear algebra routines
   SCALAPACK package :  Parallel linear algebra routines


Your calculation utilizes the basis: Ahlrichs-VDZ
Cite in your paper:
H - Kr: A. Schaefer, H. Horn and R. Ahlrichs, J. Chem. Phys. 97, 2571 (1992).

Your calculation utilizes the basis: Ahlrichs SVPalls1+f
Cite in your paper:
Rb - Xe: A. Schaefer, C. Huber and R. Ahlrichs, J. Chem. Phys. 100, 5829 (1994).

Your calculation utilizes pol. fcns from basis: Ahlrichs polarization
Cite in your paper:
H - Kr: R. Ahlrichs and coworkers, unpublished

================================================================================
                                        WARNINGS
                       Please study these warnings very carefully!
================================================================================
Now building the actual basis set


INFO   : the flag for use of LIBINT has been found!

================================================================================
                                       INPUT FILE
================================================================================
NAME = test1-single.orca
|  1> # Test a simple direct HF calculation
|  2> ! HF RHF SV(P)
|  3> * xyz 0 1
|  4> C   -0.79263     0.55338    -1.58694
|  5> C    0.68078     0.13314    -1.72622
|  6> C    1.50034     0.61020    -0.52199
|  7> C    1.01517    -0.06749     0.77103
|  8> C   -0.49095    -0.38008     0.74228
|  9> C   -1.24341     0.64080    -0.11866
| 10> H    1.10490     0.53546    -2.67754
| 11> H    0.76075    -0.97866    -1.78666
| 12> H   -0.95741     1.54560    -2.07170
| 13> H   -1.42795    -0.17916    -2.14055
| 14> H   -2.34640     0.48232    -0.04725
| 15> H   -1.04144     1.66089     0.28731
| 16> H   -0.66608    -1.39636     0.31480
| 17> H   -0.89815    -0.39708     1.78184
| 18> H    1.25353     0.59796     1.63523
| 19> H    1.57519    -1.01856     0.93954
| 20> H    2.58691     0.40499    -0.67666
| 21> H    1.39420     1.71843    -0.44053
| 22> *
| 23> 
| 24>                          ****END OF INPUT****
================================================================================

                       ****************************
                       * Single Point Calculation *
                       ****************************

---------------------------------
CARTESIAN COORDINATES (ANGSTROEM)
---------------------------------
  C     -0.792630    0.553380   -1.586940
  C      0.680780    0.133140   -1.726220
  C      1.500340    0.610200   -0.521990
  C      1.015170   -0.067490    0.771030
  C     -0.490950   -0.380080    0.742280
  C     -1.243410    0.640800   -0.118660
  H      1.104900    0.535460   -2.677540
  H      0.760750   -0.978660   -1.786660
  H     -0.957410    1.545600   -2.071700
  H     -1.427950   -0.179160   -2.140550
  H     -2.346400    0.482320   -0.047250
  H     -1.041440    1.660890    0.287310
  H     -0.666080   -1.396360    0.314800
  H     -0.898150   -0.397080    1.781840
  H      1.253530    0.597960    1.635230
  H      1.575190   -1.018560    0.939540
  H      2.586910    0.404990   -0.676660
  H      1.394200    1.718430   -0.440530

----------------------------
CARTESIAN COORDINATES (A.U.)
----------------------------
  NO LB      ZA    FRAG    MASS        X           Y           Z
   0 C     6.0000    0    12.011         -1.497853625530002          1.045736647989342         -2.998881990964991
   1 C     6.0000    0    12.011          1.286487757450910          0.251598137470275         -3.262083046897543
   2 C     6.0000    0    12.011          2.835231707767411          1.153110886918748         -0.986418144645554
   3 C     6.0000    0    12.011          1.918393279372837         -0.127537616778345          1.457035541037303
   4 C     6.0000    0    12.011         -0.927761045448638         -0.718247108980789          1.402705914687067
   5 C     6.0000    0    12.011         -2.349704372179023          1.210936506616738         -0.224234903051096
   6 H     1.0000    0     1.008          2.087958405369591          1.011872755669474         -5.059817312619508
   7 H     1.0000    0     1.008          1.437609156380592         -1.849399378223372         -3.376298094431743
   8 H     1.0000    0     1.008         -1.809242697877546          2.920760712588687         -3.914945631644657
   9 H     1.0000    0     1.008         -2.698434432932852         -0.338563334153331         -4.045053275965135
  10 H     1.0000    0     1.008         -4.434053400632825          0.911452708912898         -0.089289559827779
  11 H     1.0000    0     1.008         -1.968036384910948          3.138627238568468          0.542937215536915
  12 H     1.0000    0     1.008         -1.258708783282267         -2.638737984362279          0.594885786958410
  13 H     1.0000    0     1.008         -1.697257527181372         -0.750372453257451          3.367189614466243
  14 H     1.0000    0     1.008          2.368828400654307          1.129980639039552          3.090136865972048
  15 H     1.0000    0     1.008          2.976677708891417         -1.924799450966830          1.775473291864373
  16 H     1.0000    0     1.008          4.888551433102225          0.765320186976768         -1.278702085779154
  17 H     1.0000    0     1.008          2.634656175913009          3.247362080314296         -0.832481053776329

--------------------------------
INTERNAL COORDINATES (ANGSTROEM)
--------------------------------
 C      0   0   0   0.000000     0.000     0.000
 C      1   0   0   1.538485     0.000     0.000
 C      2   1   0   1.532787   110.850     0.000
 C      3   2   1   1.538361   110.770    63.929
 C      4   3   2   1.538485   112.491   328.554
 C      5   4   3   1.532844   110.839   329.860
 H      2   1   3   1.116579   110.028   237.168
 H      2   1   3   1.116310   110.216   119.905
 H      1   2   3   1.116533   110.168    91.353
 H      1   2   3   1.116571   108.713   207.687
 H      6   5   4   1.116603   110.760   186.330
 H      6   5   4   1.116328   108.392   302.908
 H      5   4   3   1.116349   110.225    89.763
 H      5   4   3   1.116596   110.042   207.034
 H      4   3   2   1.116459   108.705   206.283
 H      4   3   2   1.116491   110.116    89.979
 H      3   2   1   1.116543   110.750   186.291
 H      3   2   1   1.116277   108.390   302.859

---------------------------
INTERNAL COORDINATES (A.U.)
---------------------------
 C      0   0   0   0.000000     0.000     0.000
 C      1   0   0   2.907316     0.000     0.000
 C      2   1   0   2.896547   110.850     0.000
 C      3   2   1   2.907081   110.770    63.929
 C      4   3   2   2.907316   112.491   328.554
 C      5   4   3   2.896655   110.839   329.860
 H      2   1   3   2.110029   110.028   237.168
 H      2   1   3   2.109520   110.216   119.905
 H      1   2   3   2.109941   110.168    91.353
 H      1   2   3   2.110013   108.713   207.687
 H      6   5   4   2.110074   110.760   186.330
 H      6   5   4   2.109553   108.392   302.908
 H      5   4   3   2.109594   110.225    89.763
 H      5   4   3   2.110060   110.042   207.034
 H      4   3   2   2.109802   108.705   206.283
 H      4   3   2   2.109862   110.116    89.979
 H      3   2   1   2.109961   110.750   186.291
 H      3   2   1   2.109459   108.390   302.859

---------------------
BASIS SET INFORMATION
---------------------
There are 2 groups of distinct atoms

 Group   1 Type C   : 7s4p1d contracted to 3s2p1d pattern {511/31/1}
 Group   2 Type H   : 4s contracted to 2s pattern {31}

Atom   0C    basis set group =>   1
Atom   1C    basis set group =>   1
Atom   2C    basis set group =>   1
Atom   3C    basis set group =>   1
Atom   4C    basis set group =>   1
Atom   5C    basis set group =>   1
Atom   6H    basis set group =>   2
Atom   7H    basis set group =>   2
Atom   8H    basis set group =>   2
Atom   9H    basis set group =>   2
Atom  10H    basis set group =>   2
Atom  11H    basis set group =>   2
Atom  12H    basis set group =>   2
Atom  13H    basis set group =>   2
Atom  14H    basis set group =>   2
Atom  15H    basis set group =>   2
Atom  16H    basis set group =>   2
Atom  17H    basis set group =>   2
------------------------------------------------------------------------------
                           ORCA GTO INTEGRAL CALCULATION
------------------------------------------------------------------------------

                         BASIS SET STATISTICS AND STARTUP INFO

 # of primitive gaussian shells          ...  120
 # of primitive gaussian functions       ...  192
 # of contracted shell                   ...   60
 # of contracted basis functions         ...  108
 Highest angular momentum                ...    2
 Maximum contraction depth               ...    5
 Integral package used                   ... LIBINT
 Integral threshhold            Thresh   ...  1.000e-10
 Primitive cut-off              TCut     ...  1.000e-11


                              INTEGRAL EVALUATION

 One electron integrals                  ... done
 Pre-screening matrix                    ... done
 Shell pair data                         ... done (   0.001 sec)

-------------------------------------------------------------------------------
                                 ORCA SCF
-------------------------------------------------------------------------------

------------
SCF SETTINGS
------------
Hamiltonian:
 Ab initio Hamiltonian  Method          .... Hartree-Fock(GTOs)


General Settings:
 Integral files         IntName         .... test1-single.orca
 Hartree-Fock type      HFTyp           .... RHF
 Total Charge           Charge          ....    0
 Multiplicity           Mult            ....    1
 Number of Electrons    NEL             ....   48
 Basis Dimension        Dim             ....  108
 Nuclear Repulsion      ENuc            ....    255.0852204502 Eh

Convergence Acceleration:
 DIIS                   CNVDIIS         .... on
   Start iteration      DIISMaxIt       ....    12
   Startup error        DIISStart       ....  0.200000
   # of expansion vecs  DIISMaxEq       ....     5
   Bias factor          DIISBfac        ....   1.050
   Max. coefficient     DIISMaxC        ....  10.000
 Newton-Raphson         CNVNR           .... off
 SOSCF                  CNVSOSCF        .... on
   Start iteration      SOSCFMaxIt      ....   150
   Startup grad/error   SOSCFStart      ....  0.003300
 Level Shifting         CNVShift        .... on
   Level shift para.    LevelShift      ....    0.2500
   Turn off err/grad.   ShiftErr        ....    0.0010
 Zerner damping         CNVZerner       .... off
 Static damping         CNVDamp         .... on
   Fraction old density DampFac         ....    0.7000
   Max. Damping (<1)    DampMax         ....    0.9800
   Min. Damping (>=0)   DampMin         ....    0.0000
   Turn off err/grad.   DampErr         ....    0.1000
 Fernandez-Rico         CNVRico         .... off

SCF Procedure:
 Maximum # iterations   MaxIter         ....   125
 SCF integral mode      SCFMode         .... Direct
   Integral package                     .... LIBINT
 Reset frequeny         DirectResetFreq ....    20
 Integral Threshold     Thresh          ....  1.000e-10 Eh
 Primitive CutOff       TCut            ....  1.000e-11 Eh

Convergence Tolerance:
 Convergence Check Mode ConvCheckMode   .... Total+1el-Energy
 Energy Change          TolE            ....  1.000e-06 Eh
 1-El. energy change                    ....  1.000e-03 Eh
 Orbital Gradient       TolG            ....  5.000e-05
 Orbital Rotation angle TolX            ....  5.000e-05
 DIIS Error             TolErr          ....  1.000e-06


Diagonalization of the overlap matrix:
Smallest eigenvalue                        ... 9.072e-04
Time for diagonalization                   ...    0.018 sec
Threshold for overlap eigenvalues          ... 1.000e-08
Number of eigenvalues below threshold      ... 0
Time for construction of square roots      ...    0.001 sec
Total time needed                          ...    0.019 sec

-------------------
DFT GRID GENERATION
-------------------

General Integration Accuracy     IntAcc      ...  4.340
Radial Grid Type                 RadialGrid  ... Gauss-Chebyshev
Angular Grid (max. acc.)         AngularGrid ... Lebedev-110
Angular grid pruning method      GridPruning ... 3 (G Style)
Weight generation scheme         WeightScheme... Becke
Basis function cutoff            BFCut       ...    1.0000e-10
Integration weight cutoff        WCut        ...    1.0000e-14
Grids for H and He will be reduced by one unit

# of grid points (after initial pruning)     ...  19464 (   0.0 sec)
# of grid points (after weights+screening)   ...  17746 (   0.1 sec)
nearest neighbour list constructed           ...    0.0 sec
Grid point re-assignment to atoms done       ...    0.0 sec
Grid point division into batches done        ...    0.0 sec
Reduced shell lists constructed in    0.3 sec

Total number of grid points                  ...    17746
Total number of batches                      ...      284
Average number of points per batch           ...       62
Average number of grid points per atom       ...      986
Average number of shells per batch           ...    49.74 (82.89%)
Average number of basis functions per batch  ...    90.37 (83.67%)
Average number of large shells per batch     ...    41.22 (82.89%)
Average number of large basis fcns per batch ...    73.64 (81.49%)
Maximum spatial batch extension              ...  20.54, 20.34, 19.31 au
Average spatial batch extension              ...   3.58,  3.62,  3.56 au

Time for grid setup =    0.334 sec

------------------------------
INITIAL GUESS: MODEL POTENTIAL
------------------------------
Loading Hartree-Fock densities                     ... done
Calculating cut-offs                               ... done
Setting up the integral package                    ... done
Initializing the effective Hamiltonian             ... done
Starting the Coulomb interaction                   ... done (   0.2 sec)
Reading the grid                                   ... done
Mapping shells                                     ... done
Starting the XC term evaluation                    ... done (   0.3 sec)
Transforming the Hamiltonian                       ... done (   0.0 sec)
Diagonalizing the Hamiltonian                      ... done (   0.0 sec)
Back transforming the eigenvectors                 ... done (   0.0 sec)
Now organizing SCF variables                       ... done
                      ------------------
                      INITIAL GUESS DONE (   0.9 sec)
                      ------------------
--------------
SCF ITERATIONS
--------------
ITER       Energy         Delta-E        Max-DP      RMS-DP      [F,P]     Damp
               ***  Starting incremental Fock matrix formation  ***
  0   -233.6949628972   0.000000000000 0.06057845  0.00337549  0.1829795 0.7000
  1   -233.8038501461  -0.108887248878 0.04273957  0.00256608  0.1171928 0.7000
                               ***Turning on DIIS***
  2   -233.8672769053  -0.063426759227 0.08401713  0.00567936  0.0696787 0.0000
  3   -233.3649175980   0.502359307302 0.02725346  0.00164709  0.0285304 0.0000
  4   -234.0253217940  -0.660404195992 0.00364862  0.00034127  0.0047513 0.0000
                      *** Initiating the SOSCF procedure ***
                           *** Shutting down DIIS ***
                      *** Re-Reading the Fockian *** 
                      *** Removing any level shift *** 
ITER      Energy       Delta-E        Grad      Rot      Max-DP    RMS-DP
  5   -234.00863438   0.0166874139  0.001337  0.001337  0.002206  0.000176
               *** Restarting incremental Fock matrix formation ***
  6   -233.99413550   0.0144988787  0.000301  0.000343  0.000763  0.000061
  7   -233.99414032  -0.0000048174  0.000136  0.000214  0.000367  0.000033
  8   -233.99414092  -0.0000005993  0.000037  0.000030  0.000048  0.000004
                 **** Energy Check signals convergence ****
              ***Rediagonalizing the Fockian in SOSCF/NRSCF***

               *****************************************************
               *                     SUCCESS                       *
               *           SCF CONVERGED AFTER   9 CYCLES          *
               *****************************************************


----------------
TOTAL SCF ENERGY
----------------

Total Energy       :         -233.99414096 Eh           -6367.30428 eV

Components:
Nuclear Repulsion  :          255.08522045 Eh            6941.22173 eV
Electronic Energy  :         -489.07936141 Eh          -13308.52602 eV

One Electron Energy:         -820.09079031 Eh          -22315.80492 eV
Two Electron Energy:          331.01142890 Eh            9007.27890 eV

Virial components:
Potential Energy   :         -466.68641950 Eh          -12699.18309 eV
Kinetic Energy     :          232.69227854 Eh            6331.87881 eV
Virial Ratio       :            2.00559478


---------------
SCF CONVERGENCE
---------------

  Last Energy change         ...   -4.1257e-08  Tolerance :   1.0000e-06
  Last MAX-Density change    ...    1.0040e-05  Tolerance :   1.0000e-05
  Last RMS-Density change    ...    9.0310e-07  Tolerance :   1.0000e-06
  Last Orbital Gradient      ...    7.4561e-06  Tolerance :   5.0000e-05
  Last Orbital Rotation      ...    7.8185e-06  Tolerance :   5.0000e-05

             **** THE GBW FILE WAS UPDATED (test1-single.orca.gbw) ****
             **** DENSITY FILE WAS UPDATED (test1-single.orca.scfp.tmp) ****
             **** ENERGY FILE WAS UPDATED (test1-single.orca.en.tmp) ****
----------------
ORBITAL ENERGIES
----------------

  NO   OCC          E(Eh)            E(eV) 
   0   2.0000     -11.220393      -305.3224 
   1   2.0000     -11.220171      -305.3164 
   2   2.0000     -11.220144      -305.3157 
   3   2.0000     -11.219631      -305.3017 
   4   2.0000     -11.219604      -305.3009 
   5   2.0000     -11.219362      -305.2944 
   6   2.0000      -1.103477       -30.0271 
   7   2.0000      -0.985454       -26.8156 
   8   2.0000      -0.985385       -26.8137 
   9   2.0000      -0.827284       -22.5116 
  10   2.0000      -0.815517       -22.1914 
  11   2.0000      -0.707962       -19.2646 
  12   2.0000      -0.654316       -17.8048 
  13   2.0000      -0.647733       -17.6257 
  14   2.0000      -0.594204       -16.1691 
  15   2.0000      -0.553882       -15.0719 
  16   2.0000      -0.525366       -14.2959 
  17   2.0000      -0.517080       -14.0705 
  18   2.0000      -0.512462       -13.9448 
  19   2.0000      -0.501253       -13.6398 
  20   2.0000      -0.492813       -13.4101 
  21   2.0000      -0.431196       -11.7335 
  22   2.0000      -0.429861       -11.6971 
  23   2.0000      -0.429752       -11.6942 
  24   0.0000       0.163755         4.4560 
  25   0.0000       0.191440         5.2093 
  26   0.0000       0.209137         5.6909 
  27   0.0000       0.221195         6.0190 
  28   0.0000       0.237529         6.4635 
  29   0.0000       0.248564         6.7638 
  30   0.0000       0.255341         6.9482 
  31   0.0000       0.258788         7.0420 
  32   0.0000       0.283000         7.7008 
  33   0.0000       0.291095         7.9211 
  34   0.0000       0.312111         8.4930 
  35   0.0000       0.321065         8.7366 
  36   0.0000       0.356476         9.7002 
  37   0.0000       0.373155        10.1541 
  38   0.0000       0.406183        11.0528 
  39   0.0000       0.437163        11.8958 
  40   0.0000       0.454890        12.3782 
  41   0.0000       0.496470        13.5096 
  42   0.0000       0.597688        16.2639 
  43   0.0000       0.622190        16.9306 
  44   0.0000       0.630462        17.1558 
  45   0.0000       0.653766        17.7899 
  46   0.0000       0.662959        18.0400 
  47   0.0000       0.676467        18.4076 
  48   0.0000       0.695740        18.9321 
  49   0.0000       0.824272        22.4296 
  50   0.0000       0.857293        23.3281 
  51   0.0000       0.874709        23.8020 
  52   0.0000       0.878353        23.9012 
  53   0.0000       0.879886        23.9429 
  54   0.0000       0.890648        24.2358 
  55   0.0000       0.905959        24.6524 
  56   0.0000       0.919168        25.0118 
  57   0.0000       0.929007        25.2796 
  58   0.0000       0.929877        25.3032 
  59   0.0000       0.935088        25.4450 
  60   0.0000       0.947212        25.7749 
  61   0.0000       0.958903        26.0931 
  62   0.0000       0.962300        26.1855 
  63   0.0000       0.975987        26.5579 
  64   0.0000       0.977705        26.6047 
  65   0.0000       0.981867        26.7180 
  66   0.0000       0.985396        26.8140 
  67   0.0000       0.990578        26.9550 
  68   0.0000       1.006539        27.3893 
  69   0.0000       1.016842        27.6697 
  70   0.0000       1.036277        28.1985 
  71   0.0000       1.127332        30.6763 
  72   0.0000       1.239846        33.7379 
  73   0.0000       1.245881        33.9021 
  74   0.0000       1.289975        35.1020 
  75   0.0000       1.410889        38.3923 
  76   0.0000       1.528444        41.5911 
  77   0.0000       1.552484        42.2452 
  78   0.0000       1.673556        45.5398 
  79   0.0000       1.691803        46.0363 
  80   0.0000       1.960690        53.3531 
  81   0.0000       1.981695        53.9247 
  82   0.0000       1.988447        54.1084 
  83   0.0000       2.038964        55.4830 
  84   0.0000       2.048792        55.7505 
  85   0.0000       2.143135        58.3177 
  86   0.0000       2.150237        58.5109 
  87   0.0000       2.209657        60.1278 
  88   0.0000       2.251489        61.2661 
  89   0.0000       2.274036        61.8797 
  90   0.0000       2.315090        62.9968 
  91   0.0000       2.326388        63.3042 
  92   0.0000       2.386277        64.9339 
  93   0.0000       2.422845        65.9290 
  94   0.0000       2.474427        67.3326 
  95   0.0000       2.568790        69.9003 
  96   0.0000       2.569829        69.9286 
  97   0.0000       2.595689        70.6323 
  98   0.0000       2.653998        72.2190 
  99   0.0000       2.691081        73.2280 
 100   0.0000       2.693479        73.2933 
 101   0.0000       2.709022        73.7162 
 102   0.0000       2.776964        75.5650 
 103   0.0000       2.943201        80.0886 
 104   0.0000       2.967671        80.7544 
 105   0.0000       3.018669        82.1422 
 106   0.0000       3.036566        82.6292 
 107   0.0000       3.124010        85.0086 

                    ********************************
                    * MULLIKEN POPULATION ANALYSIS *
                    ********************************

-----------------------
MULLIKEN ATOMIC CHARGES
-----------------------
   0 C :   -0.232283
   1 C :   -0.260528
   2 C :   -0.260455
   3 C :   -0.232171
   4 C :   -0.260607
   5 C :   -0.260508
   6 H :    0.131435
   7 H :    0.120082
   8 H :    0.125166
   9 H :    0.125069
  10 H :    0.131396
  11 H :    0.120138
  12 H :    0.120088
  13 H :    0.131437
  14 H :    0.125161
  15 H :    0.125065
  16 H :    0.131382
  17 H :    0.120133
Sum of atomic charges:   -0.0000000

--------------------------------
MULLIKEN REDUCED ORBITAL CHARGES
--------------------------------
  0 C s       :     3.159066  s :     3.159066
      pz      :     0.985193  p :     3.022426
      px      :     0.977481
      py      :     1.059752
      dz2     :     0.010665  d :     0.050792
      dxz     :     0.009123
      dyz     :     0.010881
      dx2y2   :     0.011213
      dxy     :     0.008910
  1 C s       :     3.165580  s :     3.165580
      pz      :     1.023662  p :     3.043627
      px      :     0.967152
      py      :     1.052813
      dz2     :     0.012381  d :     0.051322
      dxz     :     0.011252
      dyz     :     0.005955
      dx2y2   :     0.015847
      dxy     :     0.005885
  2 C s       :     3.165371  s :     3.165371
      pz      :     0.950367  p :     3.043722
      px      :     1.047061
      py      :     1.046293
      dz2     :     0.013708  d :     0.051362
      dxz     :     0.009150
      dyz     :     0.007970
      dx2y2   :     0.017026
      dxy     :     0.003508
  3 C s       :     3.158942  s :     3.158942
      pz      :     1.004073  p :     3.022434
      px      :     0.972653
      py      :     1.045708
      dz2     :     0.010865  d :     0.050795
      dxz     :     0.006744
      dyz     :     0.012403
      dx2y2   :     0.010095
      dxy     :     0.010687
  4 C s       :     3.165679  s :     3.165679
      pz      :     1.043183  p :     3.043607
      px      :     0.968685
      py      :     1.031739
      dz2     :     0.011895  d :     0.051320
      dxz     :     0.008771
      dyz     :     0.008662
      dx2y2   :     0.014329
      dxy     :     0.007664
  5 C s       :     3.165508  s :     3.165508
      pz      :     0.962485  p :     3.043641
      px      :     1.050313
      py      :     1.030844
      dz2     :     0.013359  d :     0.051359
      dxz     :     0.006797
      dyz     :     0.010914
      dx2y2   :     0.015231
      dxy     :     0.005057
  6 H s       :     0.868565  s :     0.868565
  7 H s       :     0.879918  s :     0.879918
  8 H s       :     0.874834  s :     0.874834
  9 H s       :     0.874931  s :     0.874931
 10 H s       :     0.868604  s :     0.868604
 11 H s       :     0.879862  s :     0.879862
 12 H s       :     0.879912  s :     0.879912
 13 H s       :     0.868563  s :     0.868563
 14 H s       :     0.874839  s :     0.874839
 15 H s       :     0.874935  s :     0.874935
 16 H s       :     0.868618  s :     0.868618
 17 H s       :     0.879867  s :     0.879867


                     *******************************
                     * LOEWDIN POPULATION ANALYSIS *
                     *******************************

----------------------
LOEWDIN ATOMIC CHARGES
----------------------
   0 C :   -0.209127
   1 C :   -0.211946
   2 C :   -0.211965
   3 C :   -0.209131
   4 C :   -0.211942
   5 C :   -0.211957
   6 H :    0.107637
   7 H :    0.103022
   8 H :    0.105899
   9 H :    0.105896
  10 H :    0.107599
  11 H :    0.102966
  12 H :    0.103011
  13 H :    0.107623
  14 H :    0.105918
  15 H :    0.105906
  16 H :    0.107612
  17 H :    0.102978

-------------------------------
LOEWDIN REDUCED ORBITAL CHARGES
-------------------------------
  0 C s       :     2.914371  s :     2.914371
      pz      :     1.054670  p :     3.195787
      px      :     1.052741
      py      :     1.088376
      dz2     :     0.021502  d :     0.098969
      dxz     :     0.019162
      dyz     :     0.020604
      dx2y2   :     0.020944
      dxy     :     0.016757
  1 C s       :     2.913334  s :     2.913334
      pz      :     1.064789  p :     3.198928
      px      :     1.051446
      py      :     1.082693
      dz2     :     0.024323  d :     0.099684
      dxz     :     0.022756
      dyz     :     0.010764
      dx2y2   :     0.030257
      dxy     :     0.011584
  2 C s       :     2.913319  s :     2.913319
      pz      :     1.048895  p :     3.198884
      px      :     1.071509
      py      :     1.078479
      dz2     :     0.027292  d :     0.099762
      dxz     :     0.018827
      dyz     :     0.016038
      dx2y2   :     0.031764
      dxy     :     0.005841
  3 C s       :     2.914334  s :     2.914334
      pz      :     1.060213  p :     3.195820
      px      :     1.051350
      py      :     1.084257
      dz2     :     0.021437  d :     0.098977
      dxz     :     0.014191
      dyz     :     0.023314
      dx2y2   :     0.019308
      dxy     :     0.020726
  4 C s       :     2.913361  s :     2.913361
      pz      :     1.074174  p :     3.198902
      px      :     1.051096
      py      :     1.073632
      dz2     :     0.022361  d :     0.099678
      dxz     :     0.017353
      dyz     :     0.016027
      dx2y2   :     0.028292
      dxy     :     0.015644
  5 C s       :     2.913367  s :     2.913367
      pz      :     1.049704  p :     3.198838
      px      :     1.073389
      py      :     1.075746
      dz2     :     0.026706  d :     0.099752
      dxz     :     0.013840
      dyz     :     0.021731
      dx2y2   :     0.028353
      dxy     :     0.009122
  6 H s       :     0.892363  s :     0.892363
  7 H s       :     0.896978  s :     0.896978
  8 H s       :     0.894101  s :     0.894101
  9 H s       :     0.894104  s :     0.894104
 10 H s       :     0.892401  s :     0.892401
 11 H s       :     0.897034  s :     0.897034
 12 H s       :     0.896989  s :     0.896989
 13 H s       :     0.892377  s :     0.892377
 14 H s       :     0.894082  s :     0.894082
 15 H s       :     0.894094  s :     0.894094
 16 H s       :     0.892388  s :     0.892388
 17 H s       :     0.897022  s :     0.897022


                      *****************************
                      * MAYER POPULATION ANALYSIS *
                      *****************************

  NA   - Mulliken gross atomic population
  ZA   - Total nuclear charge
  QA   - Mulliken gross atomic charge
  VA   - Mayer's total valence
  BVA  - Mayer's bonded valence
  FA   - Mayer's free valence

  ATOM       NA         ZA         QA         VA         BVA        FA
  0 C      6.2323     6.0000    -0.2323     3.8904     3.8904     0.0000
  1 C      6.2605     6.0000    -0.2605     3.9126     3.9126    -0.0000
  2 C      6.2605     6.0000    -0.2605     3.9157     3.9157     0.0000
  3 C      6.2322     6.0000    -0.2322     3.8905     3.8905    -0.0000
  4 C      6.2606     6.0000    -0.2606     3.9126     3.9126    -0.0000
  5 C      6.2605     6.0000    -0.2605     3.9156     3.9156     0.0000
  6 H      0.8686     1.0000     0.1314     0.9394     0.9394    -0.0000
  7 H      0.8799     1.0000     0.1201     0.9387     0.9387    -0.0000
  8 H      0.8748     1.0000     0.1252     0.9397     0.9397     0.0000
  9 H      0.8749     1.0000     0.1251     0.9397     0.9397    -0.0000
 10 H      0.8686     1.0000     0.1314     0.9394     0.9394     0.0000
 11 H      0.8799     1.0000     0.1201     0.9386     0.9386     0.0000
 12 H      0.8799     1.0000     0.1201     0.9387     0.9387    -0.0000
 13 H      0.8686     1.0000     0.1314     0.9394     0.9394    -0.0000
 14 H      0.8748     1.0000     0.1252     0.9397     0.9397     0.0000
 15 H      0.8749     1.0000     0.1251     0.9397     0.9397    -0.0000
 16 H      0.8686     1.0000     0.1314     0.9394     0.9394     0.0000
 17 H      0.8799     1.0000     0.1201     0.9386     0.9386     0.0000

  Mayer bond orders larger than 0.1
B(  0-C ,  1-C ) :   1.0293 B(  0-C ,  5-C ) :   1.0314 B(  0-C ,  8-H ) :   0.9598 
B(  0-C ,  9-H ) :   0.9598 B(  1-C ,  2-C ) :   1.0493 B(  1-C ,  6-H ) :   0.9614 
B(  1-C ,  7-H ) :   0.9524 B(  2-C ,  3-C ) :   1.0313 B(  2-C , 16-H ) :   0.9612 
B(  2-C , 17-H ) :   0.9519 B(  3-C ,  4-C ) :   1.0294 B(  3-C , 14-H ) :   0.9598 
B(  3-C , 15-H ) :   0.9598 B(  4-C ,  5-C ) :   1.0492 B(  4-C , 12-H ) :   0.9524 
B(  4-C , 13-H ) :   0.9614 B(  5-C , 10-H ) :   0.9612 B(  5-C , 11-H ) :   0.9519 


-------
TIMINGS
-------

Total SCF time: 0 days 0 hours 0 min 19 sec 

Total time                  ....      19.995 sec
Sum of individual times     ....      21.198 sec  (106.0%)

Fock matrix formation       ....      19.953 sec  ( 99.8%)
Diagonalization             ....       0.015 sec  (  0.1%)
Density matrix formation    ....       0.001 sec  (  0.0%)
Population analysis         ....       0.006 sec  (  0.0%)
Initial guess               ....       0.880 sec  (  4.4%)
Orbital Transformation      ....       0.000 sec  (  0.0%)
Orbital Orthonormalization  ....       0.000 sec  (  0.0%)
DIIS solution               ....       0.004 sec  (  0.0%)
SOSCF solution              ....       0.005 sec  (  0.0%)

-------------------------   --------------------
FINAL SINGLE POINT ENERGY      -233.994140959320
-------------------------   --------------------


                            ***************************************
                            *     ORCA property calculations      *
                            ***************************************

                                    ---------------------
                                    Active property flags
                                    ---------------------
   (+) Dipole Moment


------------------------------------------------------------------------------
                       ORCA ELECTRIC PROPERTIES CALCULATION
------------------------------------------------------------------------------

Dipole Moment Calculation                       ... on
Quadrupole Moment Calculation                   ... off
Polarizability Calculation                      ... off
GBWName                                         ... test1-single.orca.gbw
Electron density file                           ... test1-single.orca.scfp.tmp

-------------
DIPOLE MOMENT
-------------
                                X             Y             Z
Electronic contribution:      0.00056       0.00412       0.00117
Nuclear contribution   :     -0.00044      -0.00327      -0.00094
                        -----------------------------------------
Total Dipole Moment    :      0.00011       0.00085       0.00023
                        -----------------------------------------
Magnitude (a.u.)       :      0.00089
Magnitude (Debye)      :      0.00225


Timings for individual modules:

Sum of individual times         ...       22.122 sec (=   0.369 min)
GTO integral calculation        ...        0.680 sec (=   0.011 min)   3.1 %
SCF iterations                  ...       21.441 sec (=   0.357 min)  96.9 %
                             ****ORCA TERMINATED NORMALLY****
TOTAL RUN TIME: 0 days 0 hours 0 minutes 22 seconds 749 msec
